46
F:\project_ML\CM\results-log\342.log	Energy: -393981.0629273
C         -5.06601       -0.70996        3.01012
C         -4.33362        0.58293        2.62445
C         -2.82182        0.35227        2.47956
C         -2.49113       -0.76902        1.47248
C         -3.23430       -2.05872        1.87699
C         -4.74776       -1.84378        2.02479
C         -0.96843       -1.01190        1.31983
C         -0.29446       -0.34934        0.10263
C         -0.37862        1.18569        0.09765
C          0.32739        1.81251       -1.11516
C          1.80505        1.38776       -1.24110
C          1.88918       -0.15267       -1.22180
C          1.17923       -0.77471       -0.01067
H         -6.14812       -0.53753        3.05622
H         -4.75506       -1.01217        4.02047
H         -4.73548        0.95622        1.67139
H         -4.52554        1.36577        3.36836
H         -2.40427        0.07320        3.45874
H         -2.32538        1.28529        2.19071
H         -2.88993       -0.46383        0.49137
H         -2.82289       -2.42179        2.83098
H         -3.03655       -2.84532        1.13756
H         -5.23187       -2.77439        2.34512
H         -0.78760       -2.09274        1.24368
H         -0.45231       -0.69051        2.23637
H         -0.81543       -0.71181       -0.79914
H         -1.42476        1.51203        0.11168
H          0.07933        1.56953        1.02171
H          0.24531        2.90187       -1.04576
H         -0.20415        1.51978       -2.03352
H          2.33628        1.76234       -0.34949
H          2.93353       -0.48008       -1.22754
H          1.43659       -0.54211       -2.14635
H          1.70532       -0.47653        0.90869
H          1.25014       -1.86885       -0.06278
C          2.50143        2.00554       -2.48388
H          1.97834        1.62233       -3.37421
H         -5.17274       -1.59569        1.04144
C          3.97896        1.59042       -2.59588
H          4.45017        2.07605       -3.45706
H          4.10499        0.51202       -2.72163
H          4.53920        1.89146       -1.70173
C          2.40468        3.54092       -2.51142
H          2.94907        3.94493       -3.37162
H          2.84703        3.97832       -1.60757
H          1.37335        3.89496       -2.58365
43
F:\project_ML\CM\results-log\341.log	Energy: -369311.2111600
C         -5.16266       -0.68854        2.83191
C         -4.67637        0.33750        1.79922
C         -3.14209        0.37284        1.70870
C         -2.54031       -1.01475        1.41751
C         -3.04655       -2.03774        2.45392
C         -4.57933       -2.07881        2.54447
C         -1.00054       -1.02466        1.34777
C         -0.35957       -0.15465        0.23727
C          0.12648        1.21668        0.74736
C          0.77315        2.05759       -0.36289
C          1.94194        1.32943       -1.04998
C          1.47130       -0.04806       -1.55240
C          0.81491       -0.88352       -0.44321
H         -6.25858       -0.72870        2.84354
H         -4.85166       -0.36625        3.83612
H         -5.08877        0.07862        0.81339
H         -5.06051        1.33551        2.04274
H         -2.73126        0.74670        2.65886
H         -2.83885        1.08814        0.93585
H         -2.91458       -1.33421        0.43057
H         -2.63399       -1.77670        3.44018
H         -2.65644       -3.03444        2.21102
H         -4.89231       -2.79210        3.31660
H         -0.68914       -2.06808        1.20234
H         -0.59335       -0.72945        2.32598
H         -1.11998        0.02732       -0.53937
H         -0.69950        1.77243        1.20437
H          0.86202        1.04889        1.54830
H          1.12084        3.01462        0.04687
H          0.01391        2.30430       -1.12031
H          2.71989        1.15816       -0.28744
H          2.31010       -0.60663       -1.98325
H          0.74777        0.10231       -2.36828
H          1.56777       -1.13097        0.32015
H          0.46810       -1.84034       -0.85401
C          2.55915        2.19853       -2.16074
H          2.77163        3.19230       -1.74384
H          1.80810        2.35728       -2.94788
H         -4.98755       -2.45144        1.59399
C          3.84293        1.64052       -2.78487
H          4.26109        2.34286       -3.51344
H          3.66921        0.69450       -3.30719
H          4.60862        1.46149       -2.02110
43
F:\project_ML\CM\results-log\340.log	Energy: -369313.0589388
C         -5.21468       -0.54643        2.84987
C         -4.67133        0.45968        1.82702
C         -3.13890        0.40684        1.73310
C         -2.62581       -1.01319        1.43068
C         -3.19516       -2.00941        2.45961
C         -4.73080       -1.97721        2.55837
C         -1.08973       -1.12203        1.36070
C         -0.39352       -0.28687        0.25684
C          0.17642        1.04703        0.78018
C          0.87231        1.85850       -0.32222
C          1.99066        1.06112       -1.01577
C          1.43757       -0.27904       -1.53140
C          0.73266       -1.08451       -0.43095
H         -6.31168       -0.51761        2.86660
H         -4.88129       -0.25690        3.85792
H         -5.10028        0.23739        0.83947
H         -4.99720        1.47508        2.08328
H         -2.70437        0.74781        2.68492
H         -2.79492        1.10810        0.96455
H         -3.01894       -1.30048        0.44143
H         -2.77153       -1.78068        3.45023
H         -2.86214       -3.02617        2.21161
H         -5.13311       -2.26848        1.57503
H         -0.84623       -2.18232        1.20803
H         -0.66497       -0.86073        2.34108
H         -1.14037       -0.05009       -0.51803
H         -0.61378        1.64704        1.24453
H          0.90124        0.82538        1.57763
H          1.28004        2.78799        0.09552
H          0.13012        2.15870       -1.07718
H          2.75510        0.83381       -0.25588
H          2.24800       -0.87308       -1.97302
H          0.72462       -0.07728       -2.34505
H          1.46824       -1.38627        0.32959
H          0.32476       -2.01334       -0.84980
C          2.65820        1.86890       -2.13378
H          1.93553        2.12165       -2.91919
H          3.47274        1.30529       -2.60216
H          3.07624        2.80760       -1.75361
C         -5.25220       -2.97708        3.59632
H         -4.93147       -3.99853        3.36360
H         -6.34702       -2.97140        3.63953
H         -4.87969       -2.73279        4.59859
40
F:\project_ML\CM\results-log\339.log	Energy: -344640.6674098
C         -5.10162       -0.60703        2.80400
C         -4.57402        0.41013        1.78289
C         -3.03999        0.37949        1.68701
C         -2.50121       -1.02969        1.37442
C         -3.04812       -2.04248        2.40002
C         -4.58082       -2.01785        2.49641
C         -0.96388       -1.10730        1.29776
C         -0.28827       -0.25010        0.19778
C          0.26488        1.08696        0.73121
C          0.94399        1.91935       -0.36635
C          2.06999        1.14485       -1.07269
C          1.53280       -0.19704       -1.60042
C          0.84489       -1.02403       -0.50499
H         -6.19820       -0.59898        2.81931
H         -4.77338       -0.31176        3.81103
H         -5.00037        0.18248        0.79530
H         -4.91336        1.42075        2.04066
H         -2.60996        0.72125        2.64069
H         -2.70788        1.09162        0.92312
H         -2.89366       -1.31899        0.38531
H         -2.62117       -1.81195        3.38774
H         -2.70278       -3.05214        2.14336
H         -4.92199       -2.72657        3.26075
H         -5.00846       -2.35985        1.54300
H         -0.69990       -2.16139        1.13630
H         -0.54083       -0.84490        2.27859
H         -1.04368       -0.01688       -0.56978
H         -0.53180        1.67060        1.20529
H          0.99662        0.86822        1.52314
H          1.34047        2.85025        0.05901
H          0.19420        2.21659       -1.11493
H          2.84050        0.91980       -0.31829
H          2.34898       -0.77500       -2.05264
H          0.81295        0.00379       -2.40822
H          1.58895       -1.32366        0.24811
H          0.44762       -1.95386       -0.93173
C          2.72194        1.97383       -2.18445
H          1.99273        2.22539       -2.96420
H          3.54225        1.42682       -2.66236
H          3.12860        2.91398       -1.79556
37
F:\project_ML\CM\results-log\338.log	Energy: -319968.2278310
C         -5.07473       -0.58641        2.83003
C         -4.55347        0.42574        1.80062
C         -3.02090        0.38598        1.68718
C         -2.49494       -1.02701        1.36986
C         -3.03372       -2.03415        2.40509
C         -4.56502       -2.00088        2.52037
C         -0.95940       -1.11180        1.27105
C         -0.29948       -0.26135        0.15599
C          0.28657        1.06576        0.68151
C          0.94257        1.89761       -0.43132
C          2.02324        1.09592       -1.17060
C          1.46458       -0.23291       -1.69944
C          0.79984       -1.05195       -0.58303
H         -6.17102       -0.57256        2.85772
H         -4.73365       -0.29034        3.83253
H         -4.99240        0.19843        0.81849
H         -4.88437        1.43869        2.06021
H         -2.57778        0.72557        2.63561
H         -2.69269        1.09544        0.91908
H         -2.90299       -1.31583        0.38695
H         -2.59312       -1.80323        3.38669
H         -2.69708       -3.04635        2.14688
H         -4.90065       -2.70544        3.29099
H         -5.00611       -2.34349        1.57332
H         -0.70110       -2.16755        1.11140
H         -0.52100       -0.84546        2.24401
H         -1.07191       -0.01250       -0.58940
H         -0.48894        1.65421        1.18441
H          1.04012        0.83160        1.44836
H          1.36998        2.81677       -0.01235
H          0.17157        2.21302       -1.14893
H          2.85359        0.88955       -0.48018
H          2.26008       -0.81891       -2.17563
H          0.72172       -0.02422       -2.48271
H          1.56406       -1.36209        0.14535
H          0.37490       -1.97569       -0.99624
H          2.44235        1.68786       -1.99327
40
F:\project_ML\CM\results-log\337.log	Energy: -344630.1605324
C         -4.39430       -1.12196        2.22368
C         -4.00370        0.36895        2.00020
C         -2.52852        0.35603        1.51932
C         -2.25334       -1.09337        1.06089
C         -3.08216       -1.91275        2.07013
C         -0.78188       -1.52649        0.98686
C          0.05570       -0.94354       -0.16124
C          0.42100        0.55943       -0.05673
C          1.77483        0.73102       -0.80247
C          2.21188       -0.68824       -1.26343
C          1.42846       -1.62223       -0.32229
H         -5.11136       -1.44166        1.45901
H         -4.65742        0.83090        1.25320
H         -4.11440        0.95945        2.91508
H         -1.85785        0.59668        2.35452
H         -2.33891        1.09724        0.73829
H         -2.70482       -1.23287        0.06550
H         -2.54444       -1.94984        3.02806
H         -3.24006       -2.94848        1.75001
H         -0.75981       -2.62170        0.89392
H         -0.29007       -1.29636        1.94449
H         -0.49879       -1.09899       -1.09946
H         -0.36103        1.20392       -0.46827
H          0.53145        0.83840        0.99787
H          2.52922        1.15242       -0.12686
H          1.69543        1.42273       -1.64655
H          1.83161       -0.85238       -2.28412
H          1.93199       -1.67322        0.65561
H          1.34432       -2.64742       -0.69745
C          3.73758       -0.90530       -1.29534
H          4.11256       -0.71685       -0.27682
H         -4.87382       -1.29006        3.19297
C          4.43084        0.08584       -2.24361
H          4.08238       -0.05360       -3.27461
H          5.51639       -0.06090       -2.24012
H          4.23545        1.12551       -1.96417
C          4.10742       -2.34763       -1.67465
H          3.72168       -2.60079       -2.67006
H          3.70155       -3.07468       -0.96514
H          5.19464       -2.47950       -1.69970
37
F:\project_ML\CM\results-log\336.log	Energy: -319958.9853639
C         -4.43378       -1.04732        2.31466
C         -4.00927        0.42965        2.05410
C         -2.53165        0.37112        1.59359
C         -2.32301       -1.07106        1.08427
C         -3.16026       -1.88718        2.08959
C         -0.87307       -1.55974        0.95866
C         -0.03968       -0.96019       -0.18428
C          0.40622        0.51984       -0.00992
C          1.80619        0.64057       -0.67894
C          2.10602       -0.74354       -1.30804
C          1.28641       -1.70408       -0.43183
H         -5.21181       -1.34742        1.60407
H         -4.63898        0.87652        1.27751
H         -4.12588        1.05484        2.94481
H         -1.86324        0.54500        2.44748
H         -2.29742        1.13378        0.84581
H         -2.80281       -1.15928        0.09618
H         -2.59567       -1.98233        3.02763
H         -3.37338       -2.90312        1.73976
H         -0.89882       -2.64985        0.81856
H         -0.35105       -1.39195        1.91321
H         -0.63251       -1.03357       -1.10851
H         -0.31655        1.21379       -0.44908
H          0.46967        0.77090        1.05482
H          2.56838        0.86920        0.07692
H          1.84759        1.44821       -1.41612
H          1.67294       -0.76387       -2.32034
H          1.80658       -1.86573        0.52475
H          1.14156       -2.68870       -0.89125
C          3.59373       -1.09474       -1.42020
H          3.69083       -2.13124       -1.77041
H          4.03998       -1.07009       -0.41567
H         -4.85234       -1.19157        3.31547
C          4.38555       -0.17328       -2.35457
H          3.97403       -0.19304       -3.37042
H          5.43550       -0.47760       -2.41669
H          4.36263        0.86576       -2.00946
37
F:\project_ML\CM\results-log\335.log	Energy: -319960.3750445
C         -4.51119       -0.87337        2.10166
C         -3.90962        0.55399        2.15278
C         -2.53537        0.47470        1.42730
C         -2.35709       -1.00661        0.99146
C         -3.27031       -1.77076        1.96850
C         -0.91624       -1.53692        0.94805
C         -0.02811       -1.01288       -0.19067
C          0.43486        0.46844       -0.07966
C          1.85516        0.53131       -0.71195
C          2.14895       -0.88758       -1.25722
C          1.29407       -1.78731       -0.35088
H         -5.08790       -0.96960        1.16989
H         -4.58139        1.29324        1.70429
H         -3.76996        0.85563        3.19816
H         -1.72955        0.75955        2.11333
H         -2.47472        1.15989        0.57671
H         -2.78840       -1.12236       -0.01483
H         -2.77356       -1.86424        2.94635
H         -3.50635       -2.78509        1.62647
H         -0.96492       -2.63153        0.85832
H         -0.42588       -1.33497        1.91260
H         -0.58729       -1.12673       -1.13170
H         -0.26551        1.14907       -0.57261
H          0.47446        0.77283        0.97209
H          2.59898        0.78758        0.05275
H          1.93730        1.29434       -1.49301
H          1.73717       -0.95709       -2.27514
H          1.78386       -1.89616        0.62886
H          1.14986       -2.79593       -0.75514
C          3.63368       -1.24546       -1.31378
H          4.18816       -0.55105       -1.95492
H          3.78870       -2.25570       -1.70857
H          4.08365       -1.20540       -0.31435
C         -5.43176       -1.21106        3.27412
H         -5.82766       -2.22951        3.19329
H         -6.28636       -0.52691        3.32281
H         -4.89320       -1.13708        4.22672
34
F:\project_ML\CM\results-log\334.log	Energy: -295287.9710958
C         -4.37412       -0.92943        2.41755
C         -3.95018        0.51807        2.02340
C         -2.47038        0.41829        1.58945
C         -2.30024       -1.03799        1.11005
C         -3.13488       -1.81336        2.15059
C         -0.86480       -1.56237        0.96730
C         -0.03769       -0.99297       -0.19607
C          0.45968        0.47680       -0.03099
C          1.90590        0.51718       -0.59794
C          2.11914       -0.83598       -1.31166
C          1.25304       -1.79017       -0.47508
H         -5.21975       -1.25869        1.80440
H         -4.70166       -0.99518        3.45970
H         -4.56450        0.87865        1.19111
H         -4.08751        1.23060        2.84267
H         -1.81106        0.58777        2.45173
H         -2.20576        1.16215        0.83262
H         -2.80031       -1.13558        0.13293
H         -2.54177       -1.92238        3.06893
H         -3.39419       -2.82398        1.81731
H         -0.91864       -2.65309        0.84008
H         -0.32324       -1.39660        1.91122
H         -0.65630       -1.04499       -1.10416
H         -0.19778        1.17760       -0.55454
H          0.45023        0.77193        1.02356
H          2.62992        0.60502        0.22240
H          2.08003        1.37076       -1.26147
H          1.67206       -0.77145       -2.31522
H          1.76694       -2.01324        0.47238
H          1.05924       -2.74834       -0.97089
C          3.58323       -1.24840       -1.45901
H          4.14892       -0.51397       -2.04318
H          3.67913       -2.21666       -1.96264
H          4.06470       -1.33368       -0.47726
31
F:\project_ML\CM\results-log\333.log	Energy: -270615.4229999
C         -4.41094       -0.91016        2.33948
C         -3.94721        0.53398        1.97956
C         -2.45492        0.41226        1.59749
C         -2.29515       -1.03930        1.10070
C         -3.18094       -1.81447        2.09836
C         -0.86570       -1.59005        1.00388
C          0.01634       -1.02778       -0.12170
C          0.52531        0.43243        0.06764
C          1.97220        0.47677       -0.50695
C          2.19699       -0.89932       -1.16898
C          1.30870       -1.84117       -0.34706
H         -5.24354       -1.21431        1.69627
H         -4.77162       -0.98386        3.37010
H         -4.52428        0.91551        1.13010
H         -4.10153        1.23917        2.80215
H         -1.82362        0.55529        2.48521
H         -2.14947        1.16271        0.86300
H         -2.76093       -1.11227        0.10471
H         -2.62168       -1.95111        3.03404
H         -3.44866       -2.81380        1.73876
H         -0.93590       -2.67828        0.86406
H         -0.35628       -1.44365        1.96876
H         -0.56180       -1.07040       -1.05696
H         -0.12982        1.15067       -0.43425
H          0.52590        0.70186        1.12942
H          2.69399        0.61781        0.30550
H          2.12222        1.30543       -1.20600
H          3.25047       -1.19683       -1.18631
H          1.84853       -0.88130       -2.20967
H          1.78465       -2.05471        0.62087
H          1.12048       -2.80374       -0.83519
34
F:\project_ML\CM\results-log\332.log	Energy: -295251.6453708
C         -4.56171        0.91550       -2.52122
C         -3.74474        0.05566       -1.52197
C         -2.45465        0.78763       -1.99373
C         -3.37170        1.90824       -2.57339
C         -1.40151        1.11009       -0.93379
C         -0.07897        1.72369       -1.40797
C         -0.04865        2.96952       -2.33934
C          1.15634        2.34426       -3.10854
C          0.80885        0.97664       -2.44269
H         -5.53136        1.29843       -2.19010
H         -3.98354        0.31244       -0.48330
H         -3.78195       -1.03335       -1.62560
H         -2.00415        0.22205       -2.81923
H         -3.11155        2.33861       -3.54533
H         -3.49623        2.72695       -1.85530
H         -1.16540        0.17973       -0.39491
H         -1.85653        1.77727       -0.18657
H          0.52408        1.93471       -0.51619
H         -0.93741        3.04175       -2.97126
H          0.10778        3.94133       -1.85937
H          1.04622        2.35307       -4.20096
H          1.63819        0.38375       -2.04284
H          0.22693        0.33550       -3.11249
C          2.53983        2.92078       -2.76224
H          2.64788        2.91117       -1.66643
H         -4.70171        0.40127       -3.47744
C          2.67292        4.37518       -3.23870
H          2.58670        4.43489       -4.33074
H          3.64667        4.79296       -2.96109
H          1.89992        5.01973       -2.80942
C          3.66647        2.06212       -3.35697
H          3.60783        2.05065       -4.45237
H          3.61767        1.02492       -3.01160
H          4.65047        2.45794       -3.08309
31
F:\project_ML\CM\results-log\331.log	Energy: -270580.2252640
C         -4.62329        0.98806       -2.47764
C         -3.82309        0.11623       -1.47517
C         -2.51481        0.79445       -1.97639
C         -3.39972        1.93687       -2.56321
C         -1.43700        1.09697       -0.93574
C         -0.10177        1.66014       -1.43530
C         -0.03952        2.89829       -2.37747
C          1.14603        2.22924       -3.13833
C          0.74510        0.87647       -2.47941
H         -5.57380        1.41083       -2.13956
H         -4.03815        0.39786       -0.43776
H         -3.89991       -0.97230       -1.56018
H         -2.09545        0.19953       -2.79755
H         -3.13809        2.34075       -3.54603
H         -3.48513        2.77178       -1.85827
H         -1.22394        0.16675       -0.38712
H         -1.85963        1.78869       -0.19177
H          0.52214        1.85589       -0.55456
H         -0.92715        2.98523       -3.00926
H          0.14537        3.87205       -1.91057
H          1.05542        2.24995       -4.23146
H          1.55645        0.24836       -2.09446
H          0.12735        0.26687       -3.14668
C          2.53763        2.73477       -2.74847
H          3.28664        2.01582       -3.10791
H          2.63087        2.74639       -1.65360
H         -4.79554        0.46341       -3.42289
C          2.85965        4.12524       -3.30496
H          2.82810        4.12810       -4.40055
H          3.85777        4.45664       -3.00032
H          2.14077        4.87329       -2.95332
31
F:\project_ML\CM\results-log\330.log	Energy: -270582.3641514
C         -4.65259        0.96685       -2.63449
C         -3.89519        0.10181       -1.58920
C         -2.56080        0.74642       -2.06079
C         -3.40657        1.89294       -2.69161
C         -1.51140        1.04944       -0.99135
C         -0.15165        1.58134       -1.45793
C         -0.03652        2.79597       -2.42616
C          1.16767        2.09477       -3.12299
C          0.71775        0.76107       -2.45480
H         -4.73761        0.41010       -3.57642
H         -4.14206        0.41543       -0.56685
H         -3.99157       -0.98716       -1.64913
H         -2.12548        0.13030       -2.85738
H         -3.10778        2.28519       -3.66886
H         -3.50829        2.73581       -1.99656
H         -1.33129        0.12601       -0.42002
H         -1.94513        1.76123       -0.27328
H          0.44525        1.78802       -0.56110
H         -0.89785        2.87681       -3.09426
H          0.14702        3.77910       -1.97868
H          1.12390        2.09394       -4.21808
H          1.50063        0.12351       -2.02925
H          0.11150        0.15274       -3.13375
C          2.53912        2.59518       -2.67520
H          2.72527        3.61316       -3.03602
H          3.33928        1.95211       -3.05911
H          2.62388        2.61129       -1.58232
C         -6.00432        1.56221       -2.26655
H         -6.76280        0.78156       -2.13585
H         -6.36428        2.24746       -3.04285
H         -5.94175        2.12589       -1.32830
28
F:\project_ML\CM\results-log\329.log	Energy: -245829.8791015
C         -4.71874        1.35451       -2.69740
C         -4.03381        0.33045       -1.73876
C         -2.63791        0.91936       -2.14136
C         -3.38843        2.17009       -2.72302
C         -1.61002        1.09498       -1.01880
C         -0.19958        1.55576       -1.41678
C          0.01549        2.81713       -2.32312
C          1.15810        2.05526       -3.07995
C          0.63582        0.71990       -2.44579
H         -5.61138        1.86597       -2.32587
H         -4.95242        0.91467       -3.67279
H         -4.26465        0.53727       -0.68673
H         -4.20311       -0.73395       -1.92880
H         -2.21064        0.32550       -2.95988
H         -3.05716        2.55420       -3.69264
H         -3.39953        2.99948       -2.00606
H         -1.51256        0.13139       -0.49168
H         -2.02180        1.80145       -0.28015
H          0.38441        1.67322       -0.49425
H         -0.84111        3.02243       -2.97096
H          0.29906        3.74570       -1.81570
H          1.08185        2.09669       -4.17292
H          1.39209        0.04379       -2.03216
H          0.00594        0.15222       -3.13904
C          2.57481        2.44802       -2.65216
H          3.32033        1.76595       -3.08015
H          2.68337        2.41763       -1.56005
H          2.81949        3.46526       -2.98303
25
F:\project_ML\CM\results-log\328.log	Energy: -221236.5570668
C         -4.83556        1.06846       -2.61459
C         -4.01125        0.24838       -1.58845
C         -2.72223        0.94681       -2.11117
C         -3.63796        2.04701       -2.73040
C         -1.65296        1.31122       -1.08197
C         -0.34191        1.90890       -1.60240
C         -0.31478        3.12311       -2.57765
C          0.94440        2.50350       -3.23937
C          0.54188        1.13678       -2.62492
H         -5.79673        1.47534       -2.28731
H         -4.99456        0.51197       -3.54380
H         -4.23304        0.55432       -0.55942
H         -4.05874       -0.84383       -1.64170
H         -2.28604        0.33972       -2.91450
H         -3.38804        2.42860       -3.72512
H         -3.74497        2.90006       -2.05058
H         -1.40478        0.40281       -0.51187
H         -2.09667        2.00547       -0.35276
H          0.28269        2.15533       -0.73346
H         -1.16637        3.11009       -3.26385
H         -0.23274        4.12484       -2.14420
H          1.86663        2.88978       -2.79338
H          1.03247        2.56731       -4.32778
H          1.33304        0.49188       -2.22963
H         -0.06315        0.55177       -3.32581
20
F:\project_ML\CM\results-log\327.log	Energy: -195778.9823669
C         -1.15076       -0.86876       -1.04327
C         -1.12349        0.04468        0.22774
C          0.30613        0.53359       -0.17920
C          0.21563       -0.27237       -1.51821
C         -1.16715       -2.12329       -0.11660
C         -1.27528       -1.19984        1.13792
C          1.53360       -1.01051       -1.17465
C          1.55389       -0.31190        0.22148
H         -1.95996       -0.82047       -1.77696
H         -1.84294        0.85522        0.37580
H          0.45087        1.61716       -0.16140
H          0.16690        0.22302       -2.49224
H         -0.27241       -2.75088       -0.15783
H         -2.03305       -2.77355       -0.26984
H         -0.52598       -1.33919        1.92343
H         -2.26198       -1.24668        1.60866
H          2.36152       -0.69084       -1.81477
H          1.51123       -2.10472       -1.18244
H          2.45023        0.28533        0.41130
H          1.41407       -0.97852        1.07707
23
F:\project_ML\CM\results-log\326.log	Energy: -220459.0185683
C         -2.65251        1.37838       -0.40112
C         -1.47966        0.31637       -0.39604
C         -0.61624        1.27477        0.44677
C         -1.79496        2.32827        0.46349
C         -0.91300        3.31068       -0.34546
C          0.24583        2.26590       -0.38932
C         -3.53068        0.39594        0.41588
C         -2.37028       -0.64209        0.43845
H         -3.09395        1.80242       -1.30872
H         -1.02183       -0.09659       -1.30080
H         -0.14493        0.86389        1.34663
H         -2.26163        2.71459        1.37523
H         -1.32207        3.62678       -1.31144
H         -0.64431        4.21073        0.21804
H          0.45861        1.89084       -1.39855
H         -3.86647        0.76970        1.38932
H         -4.41068        0.04555       -0.13145
H         -2.61178       -1.57483       -0.07949
H         -1.97349       -0.89905        1.42655
C          1.54807        2.71177        0.26714
H          2.01735        3.52641       -0.29659
H          2.26703        1.88662        0.32745
H          1.37077        3.07333        1.28706
20
F:\project_ML\CM\results-log\325.log	Energy: -195785.8290731
C         -2.63959        1.39446       -0.36933
C         -1.52352        0.27938       -0.49246
C         -0.57373        1.13478        0.37161
C         -1.68988        2.24975        0.49487
C         -0.79213        3.22003       -0.31659
C          0.30611        2.12283       -0.43779
C         -3.51964        0.40639        0.43985
C         -2.42123       -0.69069        0.31929